# vtk DataFile Version 2.0
 Output from graph partitioning test.
ASCII 
DATASET UNSTRUCTURED_GRID

POINTS 16 float
0 0 0
0 1 0
0 2 0
0 3 0
1 0 0
1 1 0
1 2 0
1 3 0
2 0 0
2 1 0
2 2 0
2 3 0
3 0 0
3 1 0
3 2 0
3 3 0

CELLS 24 72
2 0 1
2 0 4
2 1 2
2 1 5
2 2 3
2 2 6
2 4 5
2 4 8
2 5 6
2 5 9
2 6 7
2 6 10
2 8 9
2 8 12
2 9 10
2 9 13
2 10 11
2 10 14
2 12 13
2 3 7
2 13 14
2 7 11
2 14 15
2 11 15

CELL_TYPES 24
3
3
3
3
3
3
3
3
3
3
3
3
3
3
3
3
3
3
3
3
3
3
3
3

CELL_DATA 24
SCALARS THR_COL int 1
LOOKUP_TABLE default
0
1
2
3
4
5
6
7
8
9
10
11
12
13
14
15
16
17
18
19
20
21
22
23

SCALARS BLK_ID int 1
LOOKUP_TABLE default
0
0
0
0
1
1
1
1
2
2
2
2
3
3
3
3
4
4
4
4
5
5
5
5

SCALARS BLK_COL int 1
LOOKUP_TABLE default
0
1
0
1
0
1
0
1
0
1
0
1
0
1
0
1
0
1
0
1
0
1
0
1
